44310170
  -OEChem-04212206392D

 65 67  0     1  0  0  0  0  0999 V2000
    9.6690    6.6554    0.0000 Cl  0  0  0  0  0  0  0  0  0  0  0  0
   11.1530    5.3146    0.0000 Cl  0  0  0  0  0  0  0  0  0  0  0  0
    5.4641   -1.4690    0.0000 S   0  0  0  0  0  0  0  0  0  0  0  0
    5.4641   -6.4690    0.0000 S   0  0  0  0  0  0  0  0  0  0  0  0
    9.3775    3.5495    0.0000 P   0  0  3  0  0  0  0  0  0  0  0  0
    9.7406    5.2430    0.0000 P   0  0  3  0  0  0  0  0  0  0  0  0
   11.0814    6.7270    0.0000 P   0  0  0  0  0  0  0  0  0  0  0  0
    2.0000   -2.4690    0.0000 F   0  0  0  0  0  0  0  0  0  0  0  0
    2.3660   -1.1030    0.0000 F   0  0  0  0  0  0  0  0  0  0  0  0
    3.3660   -2.8350    0.0000 F   0  0  0  0  0  0  0  0  0  0  0  0
    8.7327    0.0963    0.0000 O   0  0  0  0  0  0  0  0  0  0  0  0
   11.0786   -0.9956    0.0000 O   0  0  0  0  0  0  0  0  0  0  0  0
   11.0824    1.1800    0.0000 O   0  0  0  0  0  0  0  0  0  0  0  0
    9.6849    2.5979    0.0000 O   0  0  0  0  0  0  0  0  0  0  0  0
    9.0702    4.5010    0.0000 O   0  0  0  0  0  0  0  0  0  0  0  0
   10.3291    3.8568    0.0000 O   0  5  0  0  0  0  0  0  0  0  0  0
    8.4259    3.2421    0.0000 O   0  0  0  0  0  0  0  0  0  0  0  0
    8.9986    5.9134    0.0000 O   0  5  0  0  0  0  0  0  0  0  0  0
   10.4826    4.5726    0.0000 O   0  0  0  0  0  0  0  0  0  0  0  0
   11.7518    7.4690    0.0000 O   0  5  0  0  0  0  0  0  0  0  0  0
   10.3394    7.3974    0.0000 O   0  5  0  0  0  0  0  0  0  0  0  0
   11.8234    6.0566    0.0000 O   0  0  0  0  0  0  0  0  0  0  0  0
    9.0084   -1.6643    0.0000 N   0  0  0  0  0  0  0  0  0  0  0  0
    9.0084   -3.2737    0.0000 N   0  0  0  0  0  0  0  0  0  0  0  0
    7.1962   -1.4690    0.0000 N   0  0  0  0  0  0  0  0  0  0  0  0
    6.3301   -2.9690    0.0000 N   0  0  0  0  0  0  0  0  0  0  0  0
    7.1962   -4.4690    0.0000 N   0  0  0  0  0  0  0  0  0  0  0  0
   10.2706   -0.4064    0.0000 C   0  0  2  0  0  0  0  0  0  0  0  0
   10.2724    0.5936    0.0000 C   0  0  1  0  0  0  0  0  0  0  0  0
    9.3191   -0.7137    0.0000 C   0  0  1  0  0  0  0  0  0  0  0  0
    9.3219    0.9043    0.0000 C   0  0  1  0  0  0  0  0  0  0  0  0
    9.0145    1.8559    0.0000 C   0  0  0  0  0  0  0  0  0  0  0  0
    8.0622   -1.9690    0.0000 C   0  0  0  0  0  0  0  0  0  0  0  0
    9.5920   -2.4690    0.0000 C   0  0  0  0  0  0  0  0  0  0  0  0
    8.0622   -2.9690    0.0000 C   0  0  0  0  0  0  0  0  0  0  0  0
    7.1962   -3.4690    0.0000 C   0  0  0  0  0  0  0  0  0  0  0  0
    6.3301   -1.9690    0.0000 C   0  0  0  0  0  0  0  0  0  0  0  0
    6.3301   -4.9690    0.0000 C   0  0  0  0  0  0  0  0  0  0  0  0
    4.5981   -1.9690    0.0000 C   0  0  0  0  0  0  0  0  0  0  0  0
    6.3301   -5.9690    0.0000 C   0  0  0  0  0  0  0  0  0  0  0  0
   10.4110    5.9850    0.0000 C   0  0  0  0  0  0  0  0  0  0  0  0
    3.7320   -1.4690    0.0000 C   0  0  0  0  0  0  0  0  0  0  0  0
    2.8660   -1.9690    0.0000 C   0  0  0  0  0  0  0  0  0  0  0  0
    5.4641   -7.4690    0.0000 C   0  0  0  0  0  0  0  0  0  0  0  0
   10.8236   -0.1258    0.0000 H   0  0  0  0  0  0  0  0  0  0  0  0
   10.1765    1.2062    0.0000 H   0  0  0  0  0  0  0  0  0  0  0  0
    9.7567   -1.1529    0.0000 H   0  0  0  0  0  0  0  0  0  0  0  0
    8.7097    1.0023    0.0000 H   0  0  0  0  0  0  0  0  0  0  0  0
    8.6336    2.3451    0.0000 H   0  0  0  0  0  0  0  0  0  0  0  0
    8.4666    1.5658    0.0000 H   0  0  0  0  0  0  0  0  0  0  0  0
   11.6455   -0.7444    0.0000 H   0  0  0  0  0  0  0  0  0  0  0  0
   11.6484    0.9269    0.0000 H   0  0  0  0  0  0  0  0  0  0  0  0
   10.2120   -2.4690    0.0000 H   0  0  0  0  0  0  0  0  0  0  0  0
    7.7331   -4.7790    0.0000 H   0  0  0  0  0  0  0  0  0  0  0  0
    6.1181   -4.3864    0.0000 H   0  0  0  0  0  0  0  0  0  0  0  0
    5.7196   -5.0766    0.0000 H   0  0  0  0  0  0  0  0  0  0  0  0
    4.1996   -2.4439    0.0000 H   0  0  0  0  0  0  0  0  0  0  0  0
    4.9966   -2.4439    0.0000 H   0  0  0  0  0  0  0  0  0  0  0  0
    6.5422   -6.5516    0.0000 H   0  0  0  0  0  0  0  0  0  0  0  0
    6.9407   -5.8613    0.0000 H   0  0  0  0  0  0  0  0  0  0  0  0
    4.1306   -0.9940    0.0000 H   0  0  0  0  0  0  0  0  0  0  0  0
    3.3335   -0.9940    0.0000 H   0  0  0  0  0  0  0  0  0  0  0  0
    4.8441   -7.4690    0.0000 H   0  0  0  0  0  0  0  0  0  0  0  0
    5.4641   -8.0890    0.0000 H   0  0  0  0  0  0  0  0  0  0  0  0
    6.0841   -7.4690    0.0000 H   0  0  0  0  0  0  0  0  0  0  0  0
  1 41  1  0  0  0  0
  2 41  1  0  0  0  0
  3 37  1  0  0  0  0
  3 39  1  0  0  0  0
  4 40  1  0  0  0  0
  4 44  1  0  0  0  0
  5 14  1  0  0  0  0
  5 15  1  0  0  0  0
  5 16  1  0  0  0  0
  5 17  2  0  0  0  0
  6 15  1  0  0  0  0
  6 18  1  0  0  0  0
  6 19  2  0  0  0  0
  6 41  1  0  0  0  0
  7 20  1  0  0  0  0
  7 21  1  0  0  0  0
  7 22  2  0  0  0  0
  7 41  1  0  0  0  0
  8 43  1  0  0  0  0
  9 43  1  0  0  0  0
 10 43  1  0  0  0  0
 11 30  1  0  0  0  0
 11 31  1  0  0  0  0
 28 12  1  1  0  0  0
 12 51  1  0  0  0  0
 29 13  1  1  0  0  0
 13 52  1  0  0  0  0
 14 32  1  0  0  0  0
 30 23  1  6  0  0  0
 23 33  1  0  0  0  0
 23 34  1  0  0  0  0
 24 34  2  0  0  0  0
 24 35  1  0  0  0  0
 25 33  2  0  0  0  0
 25 37  1  0  0  0  0
 26 36  1  0  0  0  0
 26 37  2  0  0  0  0
 27 36  1  0  0  0  0
 27 38  1  0  0  0  0
 27 54  1  0  0  0  0
 28 29  1  0  0  0  0
 28 30  1  0  0  0  0
 28 45  1  0  0  0  0
 29 31  1  0  0  0  0
 29 46  1  0  0  0  0
 30 47  1  0  0  0  0
 31 32  1  6  0  0  0
 31 48  1  0  0  0  0
 32 49  1  0  0  0  0
 32 50  1  0  0  0  0
 33 35  1  0  0  0  0
 34 53  1  0  0  0  0
 35 36  2  0  0  0  0
 38 40  1  0  0  0  0
 38 55  1  0  0  0  0
 38 56  1  0  0  0  0
 39 42  1  0  0  0  0
 39 57  1  0  0  0  0
 39 58  1  0  0  0  0
 40 59  1  0  0  0  0
 40 60  1  0  0  0  0
 42 43  1  0  0  0  0
 42 61  1  0  0  0  0
 42 62  1  0  0  0  0
 44 63  1  0  0  0  0
 44 64  1  0  0  0  0
 44 65  1  0  0  0  0
M  CHG  4  16  -1  18  -1  20  -1  21  -1
M  END
> <PUBCHEM_COMPOUND_CID>
44310170

> <PUBCHEM_COMPOUND_CANONICALIZED>
1

> <PUBCHEM_CACTVS_COMPLEXITY>
1110

> <PUBCHEM_CACTVS_HBOND_ACCEPTOR>
21

> <PUBCHEM_CACTVS_HBOND_DONOR>
3

> <PUBCHEM_CACTVS_ROTATABLE_BOND>
14

> <PUBCHEM_CACTVS_SUBSKEYS>
AAADceB7vYNmAAAAAAAAAAAAAAAAAWJAAAAsAAAAAAAAAFgB+AAAHw4QCCAACBzl15aH8L/MFxigQQZhZICA0C1RELABUKAoVBCDWAJgyEAeRAgPEALTACDwMAIAAAAAAAAAAAAAAAAAAAAAAAAAAAAAAA==

> <PUBCHEM_IUPAC_OPENEYE_NAME>
[dichloro(phosphonato)methyl]-[[(2R,3S,4R,5R)-3,4-dihydroxy-5-[6-(2-methylsulfanylethylamino)-2-(3,3,3-trifluoropropylsulfanyl)purin-9-yl]tetrahydrofuran-2-yl]methoxy-oxido-phosphoryl]oxy-phosphinate

> <PUBCHEM_IUPAC_CAS_NAME>
[dichloro(phosphonato)methyl]-[[(2R,3S,4R,5R)-3,4-dihydroxy-5-[6-[2-(methylthio)ethylamino]-2-(3,3,3-trifluoropropylthio)-9-purinyl]-2-oxolanyl]methoxy-oxidophosphoryl]oxyphosphinate

> <PUBCHEM_IUPAC_NAME_MARKUP>
[dichloro(phosphonato)methyl]-[[(2<I>R</I>,3<I>S</I>,4<I>R</I>,5<I>R</I>)-3,4-dihydroxy-5-[6-(2-methylsulfanylethylamino)-2-(3,3,3-trifluoropropylsulfanyl)purin-9-yl]oxolan-2-yl]methoxy-oxidophosphoryl]oxyphosphinate

> <PUBCHEM_IUPAC_NAME>
[dichloro(phosphonato)methyl]-[[(2R,3S,4R,5R)-3,4-dihydroxy-5-[6-(2-methylsulfanylethylamino)-2-(3,3,3-trifluoropropylsulfanyl)purin-9-yl]oxolan-2-yl]methoxy-oxidophosphoryl]oxyphosphinate

> <PUBCHEM_IUPAC_SYSTEMATIC_NAME>
[bis(chloranyl)-phosphonato-methyl]-[[(2R,3S,4R,5R)-5-[6-(2-methylsulfanylethylamino)-2-[3,3,3-tris(fluoranyl)propylsulfanyl]purin-9-yl]-3,4-bis(oxidanyl)oxolan-2-yl]methoxy-oxidanidyl-phosphoryl]oxy-phosphinate

> <PUBCHEM_IUPAC_TRADITIONAL_NAME>
[dichloro(phosphonato)methyl]-[[(2R,3S,4R,5R)-3,4-dihydroxy-5-[6-[2-(methylthio)ethylamino]-2-(3,3,3-trifluoropropylthio)purin-9-yl]tetrahydrofuran-2-yl]methoxy-oxido-phosphoryl]oxy-phosphinate

> <PUBCHEM_IUPAC_INCHI>
InChI=1S/C17H25Cl2F3N5O12P3S2/c1-43-5-3-23-12-9-13(26-15(25-12)44-4-2-16(20,21)22)27(7-24-9)14-11(29)10(28)8(38-14)6-37-42(35,36)39-41(33,34)17(18,19)40(30,31)32/h7-8,10-11,14,28-29H,2-6H2,1H3,(H,33,34)(H,35,36)(H,23,25,26)(H2,30,31,32)/p-4/t8-,10-,11-,14-/m1/s1

> <PUBCHEM_IUPAC_INCHIKEY>
PAEBIVWUMLRPSK-IDTAVKCVSA-J

> <PUBCHEM_XLOGP3_AA>
-1.3

> <PUBCHEM_EXACT_MASS>
770.9170143

> <PUBCHEM_MOLECULAR_FORMULA>
C17H21Cl2F3N5O12P3S2-4

> <PUBCHEM_MOLECULAR_WEIGHT>
772.3

> <PUBCHEM_OPENEYE_CAN_SMILES>
CSCCNC1=C2C(=NC(=N1)SCCC(F)(F)F)N(C=N2)C3C(C(C(O3)COP(=O)([O-])OP(=O)(C(P(=O)([O-])[O-])(Cl)Cl)[O-])O)O

> <PUBCHEM_OPENEYE_ISO_SMILES>
CSCCNC1=C2C(=NC(=N1)SCCC(F)(F)F)N(C=N2)[C@H]3[C@@H]([C@@H]([C@H](O3)COP(=O)([O-])OP(=O)(C(P(=O)([O-])[O-])(Cl)Cl)[O-])O)O

> <PUBCHEM_CACTVS_TPSA>
318

> <PUBCHEM_MONOISOTOPIC_WEIGHT>
770.9170143

> <PUBCHEM_TOTAL_CHARGE>
-4

> <PUBCHEM_HEAVY_ATOM_COUNT>
44

> <PUBCHEM_ATOM_DEF_STEREO_COUNT>
4

> <PUBCHEM_ATOM_UDEF_STEREO_COUNT>
0

> <PUBCHEM_BOND_DEF_STEREO_COUNT>
0

> <PUBCHEM_BOND_UDEF_STEREO_COUNT>
0

> <PUBCHEM_ISOTOPIC_ATOM_COUNT>
0

> <PUBCHEM_COMPONENT_COUNT>
1

> <PUBCHEM_CACTVS_TAUTO_COUNT>
-1

> <PUBCHEM_COORDINATE_TYPE>
1
5
255

> <PUBCHEM_BONDANNOTATIONS>
28  12  5
29  13  5
30  23  6
23  33  8
23  34  8
24  34  8
24  35  8
25  33  8
25  37  8
26  36  8
26  37  8
31  32  6
33  35  8
35  36  8

$$$$
